#! /bin/sh

pgrep -x sxhkd > /dev/null || sxhkd &

bspc monitor DP-0 -d 1 2 3 4

bspc config border_width         3
bspc config window_gap           8
bspc config split_ratio          0.6
bspc config borderless_monocle   true
bspc config gapless_monocle      true
bspc config pointer_follows_focus true
bspc config focus_follows_pointer true

# Forces Emacs to Default tiled behavior
bspc rule -a Emacs state=tiled

bspc rule -a xfreerdp desktop='^4'
bspc rule -a Peek state=floating
bspc rule -a copyq desktop='^3'
bspc rule -a keepassxc desktop='^3'

feh --no-fehbg --bg-fill /home/will/x/dotfiles/themes/backgrounds/colorful-abstract-desktop.jpg &

# Bar
~/.config/polybar/launch.sh &

# Border
bspc config focused_border_color        "#6c71c4"
bspc config normal_border_color         "#073642"
bspc config active_border_color         "#073642"

# Network Applet
nm-applet --indicator &

# Cursor
xsetroot -cursor_name left_ptr &

# Low battery notifier
~/.config/bspwm/scripts/low_bat_notifier.sh
